97
 energy: -132.882446929943 gnorm: 0.000229151392 xtb: 6.6.1 (8d0f1dd)
C            5.27914371321329        4.92928025135812        9.41219855757588
N            4.51444095123906        5.35167796076689       10.44206568168001
N            3.77157309374352        6.32814634000903       10.04769209374173
N            4.02726740580195        6.56934155236220        8.76795542783921
C            4.97364782885847        5.72124974750082        8.32241544021992
H            5.33046994949222        5.71855580722952        7.31557734201019
N            3.33559329539922        4.16973131110630        1.51444455847450
H            2.91609367030988        3.41764332432229        2.03435825607750
N            1.93569376356829        4.04616456334465        4.26170121028342
H            2.86963400512862        4.27826737821227        4.57459459726566
N            3.95634133819442        1.52806049038479        5.19543879407578
H            4.32003365836704        2.47030462913222        5.25020672203590
N            5.37170118666285        1.62132673839296        2.45267557991797
H            4.40368184773938        1.48684106370442        2.69078468122594
C            4.35407222456508        4.05112524465870        0.61669629058197
C            4.66971293775758        5.32108158074532        0.20150574836326
H            5.42889795389379        5.59839170371125       -0.50401755323217
C            3.81294253705264        6.21622467854920        0.87277795830951
H            3.81125055687163        7.28465132448145        0.76430885578723
C            2.99571752858359        5.47475579500947        1.68800851057419
C            1.85815131703889        5.90545519237719        2.58107067357803
C            0.79181027190000        6.58454798295800        1.70781108389068
H            0.49659480410022        5.92243326868715        0.89744216736467
H            1.19615648219167        7.49613602134191        1.27548898574787
H           -0.08619785253538        6.82935837562577        2.29881000020297
C            1.26966656484407        4.70710869652270        3.27283838623598
C            0.06089206249636        4.07702816588646        3.10362119924495
H           -0.70893861360641        4.33736489178138        2.40367031696223
C            0.00153767132774        3.01903290940436        4.03204585026410
H           -0.82228435692302        2.34308990665508        4.15242714253163
C            1.17567063727585        3.02660658854552        4.74638349099245
C            1.62329854497139        2.15767670402675        5.89483447346307
C            2.20606395298647        3.04237894938258        7.00983813053474
H            3.07249843832016        3.60535354676711        6.67422719444209
H            2.51160036994255        2.42657963233132        7.85385827425866
H            1.45346654159302        3.74952396801924        7.35410484100345
C            0.41686793771201        1.40078748545790        6.46296870089702
H           -0.33452793841742        2.10788898460025        6.80660318904142
H            0.73002631326112        0.78379718218519        7.30201536025312
H           -0.02722992470371        0.76076503164434        5.70694152969868
C            2.66641368654746        1.16913974594993        5.43819944362388
C            2.57394381976563       -0.18536998526906        5.22409172865871
H            1.69780800024985       -0.79590924651234        5.32259307535951
C            3.85375081389045       -0.64707071140979        4.85783152477132
H            4.11051845480709       -1.66367631969336        4.63182177807784
C            4.69856761131853        0.43605234295917        4.85731418955862
C            6.17213603171039        0.53505684490379        4.57488362216031
C            6.77914462155218       -0.86982751945148        4.43796796144279
H            6.56891440050663       -1.46446310653216        5.32244025464217
H            7.85572448972233       -0.79347428251862        4.30774795343245
H            6.36315060053756       -1.37313451531205        3.56839247481431
C            6.39525676314121        1.27183234067958        3.27720773352487
C            7.55941525876732        1.64509579873802        2.65503532720688
H            8.55707111714516        1.51546472953949        3.03124114725719
C            7.21251683025055        2.24462817466910        1.42775123043527
H            7.90641886483303        2.64751422662135        0.71551502145691
C            5.84392227346989        2.21805904394927        1.32198687309548
C            4.93168287077819        2.71281782327084        0.22645558229393
C            5.72907868825812        2.85850604025016       -1.07482644454422
H            5.07812339288297        3.21332358758704       -1.87030136837963
H            6.15093528550331        1.89763793900982       -1.35979308732087
H            6.53992226322804        3.56849580469730       -0.94860635353864
C            3.79828511955817        1.70053037638991       -0.02081670703503
H            3.17615112067076        1.55126163456207        0.85845732183671
H            4.22024424188969        0.73842407355087       -0.30411932269812
H            3.16031476855095        2.05561096452158       -0.82759582146071
C            2.40461662860519        6.89937096793606        3.63163157463860
H            3.23538231115463        6.41710385623713        4.14536586876830
H            2.81705543757611        7.76672757087774        3.11112897307030
C            1.36111833774575        7.36173732017561        4.65023756409332
H            0.69910436429803        8.09109446162951        4.17949502632916
H            0.75409959788513        6.50862571076290        4.95972717340666
C            1.99480048081811        7.99714236549033        5.89132410727487
H            2.77913720407981        8.69058727959219        5.57779353661311
H            1.23829352932626        8.56957253425543        6.43364169064867
C            2.58906492940475        6.94808056975849        6.82740182557840
H            1.79525656481225        6.30041160869055        7.20472078149233
H            3.28647182858175        6.31995481488335        6.27311957346888
C            3.33261090333914        7.57455272046443        8.00880598565841
H            4.06228967113332        8.30375667591446        7.63942407404948
H            2.64344977826583        8.07176671405320        8.69464120461843
C            6.23543536792002        3.78880618438197        9.47646390046598
H            6.19152502498210        3.33914299119090       10.46962706343751
H            7.25068092301155        4.16381556178898        9.31153221987928
C            5.90028421542081        2.75730937168063        8.39393244136044
H            4.94595986458569        2.28364465457373        8.63564552775356
H            5.76952099832792        3.28255031999942        7.44809680753365
C            6.97335962897596        1.68408366511891        8.23513885195794
H            7.06450839067278        1.13204523314596        9.17460685926861
H            7.93654668272352        2.16067040624287        8.03339887501433
C            6.64699245141819        0.70562263261100        7.10299428375155
H            5.60488442396042        0.39292957838332        7.19793482169046
H            7.27423347011133       -0.18203723692001        7.21084192839354
C            6.86852923328987        1.31189673389470        5.71599734475120
H            7.93942387420558        1.36242619027745        5.50569093079598
H            6.49686743022020        2.33592418748819        5.69839330364928
Cl           5.06697749297844        4.60277590732380        4.99396085313758
