91
 energy: -139.900294166292 gnorm: 0.000222033079 xtb: 6.6.1 (8d0f1dd)
N            2.20846348891767        0.73994156813065        6.03976120861591
H            2.66769672485640        1.27407273206229        5.30557835030971
C            1.59342556614563        1.37362155305093        7.04139910663743
C            1.58286747405843        2.86138262283453        6.96454155062159
C            1.24480804812807        3.53343881225375        5.79685820191456
H            0.97507238591289        2.97887558040296        4.91113074825258
C            1.20749793934349        4.92280428063065        5.79132986114065
C            0.75854478368308        5.68345634026510        4.59312486083106
N            1.20258224648805        5.25000142246173        3.40936214938862
H            1.89821928733608        4.51148463782148        3.36018034571015
C            0.77455960348161        5.88352289011674        2.18462946975284
H            1.50914104449985        6.64145880575913        1.88218209212477
H           -0.16205327457252        6.39967346151247        2.41468189301434
C            0.60822372415690        4.91311142950972        1.01885317620377
H            0.14438523371438        5.48346193904097        0.19289712732982
H            1.60229118436904        4.59599780901798        0.68664042253973
N           -0.12881306109528        3.69265765628003        1.30387935243048
C           -1.29376644386563        3.79412417278738        2.15490856804164
H           -0.99770937741599        4.28520765100142        3.08229537231554
H           -1.58491452242968        2.77034002590170        2.41249786968954
C           -2.52627829658021        4.51828565086323        1.58548681154599
H           -2.26998002063808        5.53184930899496        1.27480889689526
H           -2.91884134670954        3.98239137894374        0.71994238493705
C           -3.60757393356278        4.56475956998659        2.65591141171935
H           -3.71870401642668        3.57273999104377        3.10769472058278
H           -3.33156389034957        5.26981340348634        3.45416515989497
O           -4.84097076796578        4.97067969155330        2.07307388033878
C           -5.93327859253712        4.93231029198173        2.96225037713765
H           -6.73597185249073        5.46419521289116        2.44669197601151
H           -5.68398251032256        5.45058121826461        3.89781669822659
C           -6.40747600085273        3.51291634450326        3.29872521139912
H           -7.45240124974566        3.54745196794680        3.64064269733827
H           -6.34927814085125        2.88747775586178        2.39654325592100
O           -5.58992909021950        2.97303214877999        4.32031405464995
C           -5.88122222971984        1.62942651624631        4.64360068931534
H           -5.97021668676833        1.02883394640750        3.72838056043293
H           -6.82613434230062        1.57728574471419        5.20371098629583
C           -4.74007246047940        1.06897220025916        5.48613334300231
H           -4.38637329232314        1.84523035407763        6.17849608987983
H           -5.09426388763838        0.20515596280935        6.06848999940079
O           -3.69676848630187        0.66790538122063        4.62362404357367
C           -2.55918705518871        0.16742792263190        5.30522323418648
H           -2.85565047592678       -0.69135634974997        5.92820686249797
H           -2.14454614529333        0.94126195337216        5.96715783030362
C           -1.52899062502782       -0.26421553204730        4.26742785022778
H           -1.15646546825451        0.61550013019856        3.74264026067177
H           -2.03818312601353       -0.90350062216411        3.54499328851223
C           -0.34445661261918       -0.98773159860255        4.91444631779405
H           -0.09933227737080       -0.46288327601010        5.83736682680783
H           -0.63445038085679       -2.02251153818417        5.17733399550290
N            0.83030104248637       -0.96008940263604        4.05792173821946
C            2.06588494753260       -1.36380459404046        4.71399186150197
H            2.87233676662389       -1.12318677808383        4.01642865557006
H            2.08559153154919       -2.45543121015137        4.89546377072368
C            2.37593991623107       -0.69246445738686        6.05093182020674
H            1.73935265816604       -1.07558192587961        6.85315374997259
H            3.41721574148175       -0.93431463063008        6.30016721585569
C            1.88742043560467        3.57849609646018        8.11705922010635
H            2.13723315133689        3.03360800873660        9.01579020651062
C            1.86876570100536        4.96115646860493        8.10456097245610
H            2.11798630051605        5.51459778897530        8.99746360377912
C            1.51780184859575        5.63147622963001        6.94745715084615
H            1.47363886475263        6.71041695859700        6.91975372002713
C           -0.38285609417851        2.94585757058926        0.07894769135378
H           -0.91044317291302        3.56279187041251       -0.66995469063682
H           -1.01153831341886        2.09290821327703        0.34412730139559
C            0.89217012670078        2.42979725319762       -0.52945592942939
C            1.48707204117245        1.26338358155668       -0.06650549656913
O            1.00508399649030        0.45413158852902        0.91794023138023
C            1.88016043160211       -0.58405347847847        1.02132748795540
C            1.76694338675615       -1.66629330569479        1.88494023519449
C            0.62656777399994       -1.76980549623200        2.85799607898617
H           -0.27369953749103       -1.40017505657094        2.36642651675364
H            0.47883138836890       -2.83290702625007        3.12824430101780
C            2.75415740215414       -2.63753975255836        1.78001313039284
H            2.69922157027829       -3.50339817173016        2.42369069586657
C            3.81007067170891       -2.52988327612263        0.88022584543849
H            4.55414487698094       -3.31184304727720        0.84773681139767
C            3.91986586743208       -1.44440798168424        0.03410331064698
H            4.73882364902200       -1.35584355394511       -0.66251155580160
C            2.93903827789980       -0.46362169163066        0.10038982668854
C            2.67982020755523        0.75643603431484       -0.61699129998819
C            3.31062009996189        1.43251130927611       -1.65315168795504
H            4.22990050525481        1.05699363258379       -2.07487901320461
C            2.72494132279229        2.59093159629940       -2.12334496440943
H            3.19062065985173        3.13679042034826       -2.93047158130582
C            1.54024623998221        3.07324491411179       -1.57493566897068
H            1.10712912019971        3.97933724520866       -1.97282163486508
O            1.07324311007799        0.78307515852888        7.99444686476943
O           -0.00184311623742        6.65049668026179        4.70832525078444
I            4.06294799577461        2.88580505652960        3.68971699671659
