133
 energy: -217.372731805974 gnorm: 0.000585942624 xtb: 6.6.1 (8d0f1dd)
O            2.75846620499248       12.62822340578880       18.90736075287732
O            6.91003062108399       13.93462975046411       13.45627712903124
O            8.39083221905457       13.33098690472569       18.16986595643232
O            4.23761195411520        7.95124217139591       19.74502975493503
N            2.19833474179450        8.46686930639161       16.18916003104160
C            1.23896221404810        9.39973326883648       16.74687359241246
H            0.36383182048309        8.89092625760728       17.18924813668615
H            0.88284223214548       10.05288844824046       15.95084020879298
C            1.88988038754794       10.26853035687041       17.82059424172687
H            1.14875954278530       10.92985838760814       18.27983843343425
H            2.31092273816020        9.64662387038963       18.61874394990940
N            2.92703440249561       11.10512813551113       17.25947656473367
H            3.43392288841993       10.76867247133841       16.45309122446453
C            3.29044764073299       12.23651217294243       17.86990474551965
C            4.35773935980242       13.05461682947703       17.20755046941787
N            4.89819411960544       12.64557963227695       16.06336125013370
C            4.71189583611770       14.24778339915604       17.83676864537410
H            4.23097001281069       14.49706879617475       18.76970331917239
C            5.65651735629084       15.06552000003239       17.24642730892282
H            5.96104984545222       15.99202265805399       17.70967114533163
C            6.19612985805412       14.66085794499596       16.04074645631330
H            6.92474805149157       15.25326788823951       15.51041402259935
C            5.79361004291139       13.44392760699341       15.49023393933160
C            6.41991303610176       13.06413654119321       14.17665675946293
N            6.42444936631811       11.76849457549097       13.87038061824411
H            6.04458503251763       11.08437334686374       14.51564934796700
C            7.14988673734156       11.25906858337276       12.73137639153166
H            6.95207959436999       11.89956176505905       11.86837040550400
H            6.79607470391741       10.25055368943036       12.53129812978027
C            8.65931582955125       11.24287022935237       13.00635231398968
H            9.18254982845339       10.90007704194984       12.10081384537778
H            8.97459761371421       12.26967025149258       13.19826379259276
N            8.96764616986196       10.40521438412448       14.15591154146379
C            9.92442781538083       11.00968645394549       15.06181678695249
H           10.80018883965828       11.42730788082099       14.53357528076964
H           10.28010049708600       10.24741044575201       15.75447285702816
C            9.27013860999478       12.12481092353981       15.87409597952735
H           10.00860567219688       12.61753343768447       16.51401875359930
H            8.84992081997193       12.89025621048923       15.21181915121294
N            8.23134994089997       11.60505662710267       16.73497901758768
H            7.72652157598761       10.78190535839582       16.43844713460694
C            7.86302592566717       12.27265331349375       17.83190090115746
C            6.79635294634799       11.65019634309232       18.68130939670423
N            6.25588817175246       10.48741225521983       18.32876991018967
C            6.44319446362225       12.33636413141002       19.84286467764038
H            6.92588788060798       13.27922510915861       20.04654262550652
C            5.49816521828640       11.78725742539946       20.68825890278626
H            5.19369072222607       12.29553152607192       21.59072325356621
C            4.95762655156288       10.56386402182263       20.34260458442285
H            4.22826217582331       10.06353741233456       20.95967238788567
C            5.36059167808101        9.95416411926431       19.15437146207253
C            4.73434494076942        8.62352499950463       18.84042635155699
N            4.73842755174783        8.24731692913203       17.56341156048029
H            5.11978555376951        8.85586608724760       16.84717668293275
C            4.01332113491639        7.08346679607379       17.11304592240820
H            4.20998270469650        6.25485209992151       17.79791479110557
H            4.36809860621748        6.83090238106651       16.11674495499269
C            2.50417847293860        7.35866348170152       17.08162724328247
H            1.98002068854907        6.43826863058189       16.78260913215233
H            2.18804354026873        7.60062180968909       18.09757988142814
C            1.87214753840395        7.99644240827461       14.85496766594639
H            0.90375750254031        7.46242839672554       14.85294180776871
H            2.65473405744729        7.29355166880017       14.56608255889556
C            9.29752820600978        9.05106997330167       13.74946008599639
H           10.26654526662291        9.02556409305422       13.21717610294737
H            8.51608984835524        8.72848727600189       13.06034517573193
O            2.75461930161339        4.49274313936937        9.76764988244204
O            6.91082794265668        3.18817824155140       15.21526533891961
O            8.39389036715550        3.78900536911948       10.50567460061569
O            4.23779582613968        9.16665606937063        8.93212227407118
N            2.19836298357638        8.65394925711090       12.48609831536350
C            1.23766594107256        7.72244692090137       11.92835089715450
H            0.36301706995784        8.23241504472255       11.48637067613735
H            0.88101474522342        7.06949395930889       12.72431530377852
C            1.88734426682515        6.85318960472166       10.85424966484290
H            1.14561667456838        6.19206616668457       10.39570744177802
H            2.30805846908535        7.47474967258640       10.05564871117072
N            2.92464055946454        6.01642668271932       11.41485810784082
H            3.43197563463176        6.35304837909289       12.22089343721931
C            3.28748046419825        4.88482357644612       10.80450710577390
C            4.35562446447510        4.06717944217264       11.46603922074716
N            4.89699468575633        4.47662467977369       12.60964916211699
C            4.70975154292509        2.87411311924869       10.83661475940597
H            4.22783859933084        2.62435839215978        9.90431664710154
C            5.65561844126715        2.05707817252277       11.42595093181141
H            5.96025400320217        1.13073890176072       10.96244263302897
C            6.19630195098707        2.46221097664424       12.63099260475214
H            6.92596196460984        1.87034969560684       13.16048673546964
C            5.79343800047133        3.67882794272136       13.18194593479693
C            6.42012098041517        4.05864879432339       14.49529722087383
N            6.42414790762116        5.35419216708768       14.80214477408422
H            6.04379358784145        6.03828426643893       14.15731895200374
C            7.14911854919505        5.86301327190892       15.94173797380692
H            6.95063706815258        5.22223208449069       16.80436130268844
H            6.79549587183674        6.87150859513947       16.14205638069402
C            8.65869115307813        5.87875504975641       15.66767456477216
H            9.18148817149633        6.22143511670413       16.57351031396043
H            8.97377792962323        4.85187696390163       15.47599181144730
N            8.96795905832959        6.71623897601991       14.51824166624020
C            9.92614161255725        6.11194824248895       13.61368179573635
H           10.80158655052846        5.69509357175007       14.14302370733881
H           10.28206543462557        6.87416628001692       12.92108405181882
C            9.27327385754961        4.99612926471707       12.80121315826812
H           10.01234829665973        4.50428790089447       12.16132921866916
H            8.85374239989997        4.23014496369264       13.46329564731777
N            8.23400937165070        5.51504799157805       11.94041620572209
H            7.72894958281946        6.33804638387184       12.23697430457397
C            7.86565434041702        4.84706528820803       10.84376061929906
C            6.79811791227042        5.46883045143085        9.99493929364874
N            6.25723778687361        6.63132064863752       10.34783983061047
C            6.44459169778565        4.78244978693703        8.83362965086931
H            6.92780492845915        3.83994134538942        8.62957481883777
C            5.49858466565844        5.33094115223644        7.98891274489713
H            5.19378535394084        4.82251452888333        7.08663853535405
C            4.95757785859065        6.55402813507684        8.33492162873592
H            4.22749400177113        7.05392267875778        7.71835560558380
C            5.36110003962898        7.16404280548162        9.52281375370506
C            4.73484706817359        8.49465121665851        9.83673879140612
N            4.73930684277166        8.87144188220166       11.11361953893599
H            5.12104390331814        8.26340608254426       11.82999647705994
C            4.01477200779538       10.03602517917704       11.56313447466947
H            4.21240254354541       10.86419563108883       10.87797838688237
H            4.36919395131695       10.28887228881529       12.55948660144026
C            2.50543230709239        9.76193834634720       11.59378135574715
H            1.98179729256720       10.68274706182635       11.89251115465803
H            2.18965904355525        9.52019255080561       10.57767224805598
C            1.87289552077572        9.12469794694671       13.82036293144103
H            0.90524508113684        9.66004094752770       13.82246128519581
H            2.65643192017965        9.82652080861062       14.10926501016450
C            9.29684829804428        8.07054169820509       14.92494442921631
H           10.26508156677078        8.09640240199117       15.45863176459964
H            8.51433869266717        8.39297963351221       15.61289190541877
Br           5.58034467578745        8.56392855430274       14.34052873284199
